 Entering Gaussian System, Link 0=g16
 Input=gin.gjf
 Output=gin.log
 Initial command:
 /work/01114/jfonner/frontera/gaussian/16rC.01/g16/l1.exe "/tmp/Gau-129033.inp" -scrdir="/tmp/"
 Entering Link 1 = /work/01114/jfonner/frontera/gaussian/16rC.01/g16/l1.exe PID=    129034.
  
 Copyright (c) 1988-2019, Gaussian, Inc.  All Rights Reserved.
  
 This is part of the Gaussian(R) 16 program.  It is based on
 the Gaussian(R) 09 system (copyright 2009, Gaussian, Inc.),
 the Gaussian(R) 03 system (copyright 2003, Gaussian, Inc.),
 the Gaussian(R) 98 system (copyright 1998, Gaussian, Inc.),
 the Gaussian(R) 94 system (copyright 1995, Gaussian, Inc.),
 the Gaussian 92(TM) system (copyright 1992, Gaussian, Inc.),
 the Gaussian 90(TM) system (copyright 1990, Gaussian, Inc.),
 the Gaussian 88(TM) system (copyright 1988, Gaussian, Inc.),
 the Gaussian 86(TM) system (copyright 1986, Carnegie Mellon
 University), and the Gaussian 82(TM) system (copyright 1983,
 Carnegie Mellon University). Gaussian is a federally registered
 trademark of Gaussian, Inc.
  
 This software contains proprietary and confidential information,
 including trade secrets, belonging to Gaussian, Inc.
  
 This software is provided under written license and may be
 used, copied, transmitted, or stored only in accord with that
 written license.
  
 The following legend is applicable only to US Government
 contracts under FAR:
  
                    RESTRICTED RIGHTS LEGEND
  
 Use, reproduction and disclosure by the US Government is
 subject to restrictions as set forth in subparagraphs (a)
 and (c) of the Commercial Computer Software - Restricted
 Rights clause in FAR 52.227-19.
  
 Gaussian, Inc.
 340 Quinnipiac St., Bldg. 40, Wallingford CT 06492
  
  
 ---------------------------------------------------------------
 Warning -- This program may not be used in any manner that
 competes with the business of Gaussian, Inc. or will provide
 assistance to any competitor of Gaussian, Inc.  The licensee
 of this program is prohibited from giving any competitor of
 Gaussian, Inc. access to this program.  By using this program,
 the user acknowledges that Gaussian, Inc. is engaged in the
 business of creating and licensing software in the field of
 computational chemistry and represents and warrants to the
 licensee that it is not a competitor of Gaussian, Inc. and that
 it will not use this program in any manner prohibited above.
 ---------------------------------------------------------------
  

 Cite this work as:
 Gaussian 16, Revision C.01,
 M. J. Frisch, G. W. Trucks, H. B. Schlegel, G. E. Scuseria, 
 M. A. Robb, J. R. Cheeseman, G. Scalmani, V. Barone, 
 G. A. Petersson, H. Nakatsuji, X. Li, M. Caricato, A. V. Marenich, 
 J. Bloino, B. G. Janesko, R. Gomperts, B. Mennucci, H. P. Hratchian, 
 J. V. Ortiz, A. F. Izmaylov, J. L. Sonnenberg, D. Williams-Young, 
 F. Ding, F. Lipparini, F. Egidi, J. Goings, B. Peng, A. Petrone, 
 T. Henderson, D. Ranasinghe, V. G. Zakrzewski, J. Gao, N. Rega, 
 G. Zheng, W. Liang, M. Hada, M. Ehara, K. Toyota, R. Fukuda, 
 J. Hasegawa, M. Ishida, T. Nakajima, Y. Honda, O. Kitao, H. Nakai, 
 T. Vreven, K. Throssell, J. A. Montgomery, Jr., J. E. Peralta, 
 F. Ogliaro, M. J. Bearpark, J. J. Heyd, E. N. Brothers, K. N. Kudin, 
 V. N. Staroverov, T. A. Keith, R. Kobayashi, J. Normand, 
 K. Raghavachari, A. P. Rendell, J. C. Burant, S. S. Iyengar, 
 J. Tomasi, M. Cossi, J. M. Millam, M. Klene, C. Adamo, R. Cammi, 
 J. W. Ochterski, R. L. Martin, K. Morokuma, O. Farkas, 
 J. B. Foresman, and D. J. Fox, Gaussian, Inc., Wallingford CT, 2019.
 
 ******************************************
 Gaussian 16:  ES64L-G16RevC.01  3-Jul-2019
                30-Jan-2024 
 ******************************************
  %NProcShared=56
 Will use up to   56 processors via shared memory.
  %mem=64GB
 ----------------------------------------------------------
 #P GFInput IOP(6/7=3) 5D Gen TPSSh Nosym scf(maxcycle=500)
 ----------------------------------------------------------
 1/38=1,172=1/1;
 2/12=2,15=1,17=6,18=5,40=1/2;
 3/5=7,8=1,11=2,24=10,25=1,30=1,74=-35/1,2,3;
 4//1;
 5/5=2,7=500,38=5/2;
 6/7=3,8=2,9=2,10=2,28=1/1;
 99/5=1,9=1/99;
 Leave Link    1 at Tue Jan 30 05:21:36 2024, MaxMem=  8589934592 cpu:               2.0 elap:               0.0
 (Enter /work/01114/jfonner/frontera/gaussian/16rC.01/g16/l101.exe)
 ------
 DFT_6D
 ------
 Symbolic Z-matrix:
 Charge =  1 Multiplicity = 1
 Fe                    0.        0.        0. 
 H                     0.99629   1.28208   0. 
 H                     1.48618   0.5814    0. 
 H                     1.64358  -0.35142   0. 
 H                    -1.27978  -2.62066   1.06641 
 H                    -2.76842  -1.52711   0. 
 H                    -1.27978  -2.62066  -1.06641 
 H                    -0.5176    0.64053   3.09046 
 H                     0.08994  -1.38407   2.81076 
 H                     1.52874   0.19246   2.69433 
 H                    -2.91114   1.21648   0. 
 H                    -1.61474   2.52069  -1.06171 
 H                    -1.61474   2.52069   1.06171 
 H                     1.52874   0.19246  -2.69433 
 H                     0.08994  -1.38407  -2.81076 
 H                    -0.5176    0.64053  -3.09046 
 P                     0.25448  -0.13008  -2.197 
 P                     0.25448  -0.13008   2.197 
 P                    -1.5542    1.59739   0. 
 P                    -1.36926  -1.70807   0. 
 
 ITRead=  0  0  0  0  0  0  0  0  0  0  0  0  0  0  0  0  0  0  0  0
 MicOpt= -1 -1 -1 -1 -1 -1 -1 -1 -1 -1 -1 -1 -1 -1 -1 -1 -1 -1 -1 -1
 NAtoms=     20 NQM=       20 NQMF=       0 NMMI=      0 NMMIF=      0
                NMic=       0 NMicF=      0.
                    Isotopes and Nuclear Properties:
 (Nuclear quadrupole moments (NQMom) in fm**2, nuclear magnetic moments (NMagM)
  in nuclear magnetons)

  Atom         1           2           3           4           5           6           7           8           9          10
 IAtWgt=          56           1           1           1           1           1           1           1           1           1
 AtmWgt=  55.9349393   1.0078250   1.0078250   1.0078250   1.0078250   1.0078250   1.0078250   1.0078250   1.0078250   1.0078250
 NucSpn=           0           1           1           1           1           1           1           1           1           1
 AtZEff=  -0.0000000  -0.0000000  -0.0000000  -0.0000000  -0.0000000  -0.0000000  -0.0000000  -0.0000000  -0.0000000  -0.0000000
 NQMom=    0.0000000   0.0000000   0.0000000   0.0000000   0.0000000   0.0000000   0.0000000   0.0000000   0.0000000   0.0000000
 NMagM=    0.0000000   2.7928460   2.7928460   2.7928460   2.7928460   2.7928460   2.7928460   2.7928460   2.7928460   2.7928460
 AtZNuc=  26.0000000   1.0000000   1.0000000   1.0000000   1.0000000   1.0000000   1.0000000   1.0000000   1.0000000   1.0000000

  Atom        11          12          13          14          15          16          17          18          19          20
 IAtWgt=           1           1           1           1           1           1          31          31          31          31
 AtmWgt=   1.0078250   1.0078250   1.0078250   1.0078250   1.0078250   1.0078250  30.9737634  30.9737634  30.9737634  30.9737634
 NucSpn=           1           1           1           1           1           1           1           1           1           1
 AtZEff=  -0.0000000  -0.0000000  -0.0000000  -0.0000000  -0.0000000  -0.0000000  -0.0000000  -0.0000000  -0.0000000  -0.0000000
 NQMom=    0.0000000   0.0000000   0.0000000   0.0000000   0.0000000   0.0000000   0.0000000   0.0000000   0.0000000   0.0000000
 NMagM=    2.7928460   2.7928460   2.7928460   2.7928460   2.7928460   2.7928460   1.1316000   1.1316000   1.1316000   1.1316000
 AtZNuc=   1.0000000   1.0000000   1.0000000   1.0000000   1.0000000   1.0000000  15.0000000  15.0000000  15.0000000  15.0000000
 Leave Link  101 at Tue Jan 30 05:21:36 2024, MaxMem=  8589934592 cpu:               5.4 elap:               0.1
 (Enter /work/01114/jfonner/frontera/gaussian/16rC.01/g16/l202.exe)
                          Input orientation:                          
 ---------------------------------------------------------------------
 Center     Atomic      Atomic             Coordinates (Angstroms)
 Number     Number       Type             X           Y           Z
 ---------------------------------------------------------------------
      1         26           0        0.000000    0.000000    0.000000
      2          1           0        0.996293    1.282085    0.000000
      3          1           0        1.486181    0.581404    0.000000
      4          1           0        1.643580   -0.351419    0.000000
      5          1           0       -1.279779   -2.620658    1.066409
      6          1           0       -2.768416   -1.527111    0.000000
      7          1           0       -1.279779   -2.620658   -1.066409
      8          1           0       -0.517596    0.640531    3.090458
      9          1           0        0.089942   -1.384068    2.810758
     10          1           0        1.528738    0.192461    2.694331
     11          1           0       -2.911135    1.216481    0.000000
     12          1           0       -1.614744    2.520685   -1.061714
     13          1           0       -1.614744    2.520685    1.061714
     14          1           0        1.528738    0.192461   -2.694331
     15          1           0        0.089942   -1.384068   -2.810758
     16          1           0       -0.517596    0.640531   -3.090458
     17         15           0        0.254477   -0.130075   -2.196998
     18         15           0        0.254477   -0.130075    2.196998
     19         15           0       -1.554205    1.597394    0.000000
     20         15           0       -1.369263   -1.708066    0.000000
 ---------------------------------------------------------------------
                    Distance matrix (angstroms):
                    1          2          3          4          5
     1  Fe   0.000000
     2  H    1.623681   0.000000
     3  H    1.595858   0.854953   0.000000
     4  H    1.680729   1.757076   0.946009   0.000000
     5  H    3.105304   4.642104   4.363595   3.851325   0.000000
     6  H    3.161676   4.697299   4.748413   4.565957   2.132865
     7  H    3.105304   4.642104   4.363595   3.851325   2.132818
     8  H    3.198299   3.500626   3.683687   3.899433   3.913189
     9  H    3.134342   3.978719   3.703097   3.373502   2.539300
    10  H    3.103788   2.954691   2.722592   2.751075   4.295525
    11  H    3.155081   3.907979   4.442940   4.817026   4.303741
    12  H    3.176238   3.078779   3.808383   4.471341   5.574452
    13  H    3.176238   3.078779   3.808383   4.471341   5.152245
    14  H    3.103788   2.954691   2.722592   2.751075   5.472163
    15  H    3.134342   3.978719   3.703097   3.373502   4.293916
    16  H    3.198299   3.500626   3.683687   3.899433   5.338147
    17  P    2.215509   2.715012   2.617269   2.608716   4.382553
    18  P    2.215509   2.715012   2.617269   2.608716   3.136109
    19  P    2.228726   2.569914   3.205648   3.744823   4.359415
    20  P    2.189149   3.812723   3.659950   3.304196   1.406435
                    6          7          8          9         10
     6  H    0.000000
     7  H    2.132865   0.000000
     8  H    4.394974   5.338147   0.000000
     9  H    4.011363   4.293916   2.132214   0.000000
    10  H    5.355546   5.472163   2.131940   2.137553   0.000000
    11  H    2.747301   4.303741   3.951162   4.865150   5.293440
    12  H    4.340835   5.152245   4.688203   5.757525   5.423097
    13  H    4.340835   5.574452   2.975654   4.605672   4.238814
    14  H    5.355546   4.295525   6.152400   5.904370   5.388661
    15  H    4.011363   2.539300   6.268370   5.621516   5.904370
    16  H    4.394974   3.913189   6.180916   6.268370   6.152400
    17  P    3.989536   3.136109   5.398808   5.164997   5.064866
    18  P    3.989536   4.382553   1.410036   1.405800   1.405386
    19  P    3.352140   4.359415   3.397216   4.415054   4.328717
    20  P    1.410806   1.406435   3.973937   3.183491   4.389741
                   11         12         13         14         15
    11  H    0.000000
    12  H    2.123397   0.000000
    13  H    2.123397   2.123428   0.000000
    14  H    5.293440   4.238814   5.423097   0.000000
    15  H    4.865150   4.605672   5.757525   2.137553   0.000000
    16  H    3.951162   2.975654   4.688203   2.131940   2.132214
    17  P    4.081803   3.436479   4.597795   1.405386   1.405800
    18  P    4.081803   4.597795   3.436479   5.064866   5.164997
    19  P    1.409382   1.408321   1.408321   4.328717   4.415054
    20  P    3.306107   4.366902   4.366902   4.389741   3.183491
                   16         17         18         19         20
    16  H    0.000000
    17  P    1.410036   0.000000
    18  P    5.398808   4.393996   0.000000
    19  P    3.397216   3.329006   3.329006   0.000000
    20  P    3.973937   3.154899   3.154899   3.310630   0.000000
 Symmetry turned off by external request.
 Stoichiometry    FeH15P4(1+)
 Framework group  CS[SG(FeH5P2),X(H10P2)]
 Deg. of freedom    31
 Full point group                 CS      NOp   2
 Rotational constants (GHZ):           1.4552728           1.0275433           0.8989248
 Leave Link  202 at Tue Jan 30 05:21:36 2024, MaxMem=  8589934592 cpu:               0.9 elap:               0.0
 (Enter /work/01114/jfonner/frontera/gaussian/16rC.01/g16/l301.exe)
 General basis read from cards:  (5D, 7F)
 Centers:       1     17     18     19     20      2      3      4      5      6
 Centers:       7      8      9     10     11     12     13     14     15     16
 def2TZVPP
 ****
 Ernie: Thresh=  0.10000D-02 Tol=  0.10000D-05 Strict=F.
 AO basis set in the form of general basis input (Overlap normalization):
      1 0
 S   8 1.00       0.000000000000
      0.3007848464D+06  0.2410330502D-03
      0.4508897056D+05  0.1868738246D-02
      0.1026251632D+05  0.9715513462D-02
      0.2905289729D+04  0.3947996701D-01
      0.9461148714D+03  0.1284216283D+00
      0.3398783289D+03  0.3045786075D+00
      0.1319442559D+03  0.4346555378D+00
      0.5211149408D+02  0.2274238238D+00
 S   4 1.00       0.000000000000
      0.3294883927D+03 -0.2471664579D-01
      0.1019233274D+03 -0.1166959982D+00
      0.1624046274D+02  0.5522977944D+00
      0.6884067580D+01  0.5353975204D+00
 S   2 1.00       0.000000000000
      0.1047069378D+02 -0.3774586977D+00
      0.1736003965D+01  0.1172262291D+01
 S   1 1.00       0.000000000000
      0.7257728898D+00  0.1000000000D+01
 S   1 1.00       0.000000000000
      0.1159552820D+00  0.1000000000D+01
 S   1 1.00       0.000000000000
      0.4196822775D-01  0.1000000000D+01
 P   6 1.00       0.000000000000
      0.1585395997D+04  0.2739564175D-02
      0.3753800650D+03  0.2216749655D-01
      0.1203181650D+03  0.1036484034D+00
      0.4478874903D+02  0.2970323067D+00
      0.1782927858D+02  0.4777337438D+00
      0.7224715379D+01  0.2787174988D+00
 P   3 1.00       0.000000000000
      0.2814321976D+02 -0.2026874237D-01
      0.3874324141D+01  0.3860338154D+00
      0.1541075228D+01  0.6753824729D+00
 P   1 1.00       0.000000000000
      0.5828561525D+00  0.1000000000D+01
 P   1 1.00       0.000000000000
      0.2204000000D+00  0.1000000000D+01
 P   1 1.00       0.000000000000
      0.8338000000D-01  0.1000000000D+01
 D   4 1.00       0.000000000000
      0.6199667503D+02  0.1949733398D-01
      0.1787373255D+02  0.1192286810D+00
      0.6274478293D+01  0.3762527479D+00
      0.2355233717D+01  0.6499784308D+00
 D   1 1.00       0.000000000000
      0.8543223990D+00  0.1000000000D+01
 D   1 1.00       0.000000000000
      0.2786925441D+00  0.1000000000D+01
 D   1 1.00       0.000000000000
      0.9100000000D-01  0.1000000000D+01
 F   1 1.00       0.000000000000
      0.3465000000D+01  0.1000000000D+01
 F   1 1.00       0.000000000000
      0.8430000000D+00  0.1000000000D+01
 G   1 1.00       0.000000000000
      0.2128000000D+01  0.1000000000D+01
 ****
      2 0
 S   3 1.00       0.000000000000
      0.3406134100D+02  0.2543930721D-01
      0.5123574600D+01  0.1900859489D+00
      0.1164662600D+01  0.8524411301D+00
 S   1 1.00       0.000000000000
      0.3272304100D+00  0.1000000000D+01
 S   1 1.00       0.000000000000
      0.1030724100D+00  0.1000000000D+01
 P   1 1.00       0.000000000000
      0.1407000000D+01  0.1000000000D+01
 P   1 1.00       0.000000000000
      0.3880000000D+00  0.1000000000D+01
 D   1 1.00       0.000000000000
      0.1057000000D+01  0.1000000000D+01
 ****
      3 0
 S   3 1.00       0.000000000000
      0.3406134100D+02  0.2543930721D-01
      0.5123574600D+01  0.1900859489D+00
      0.1164662600D+01  0.8524411301D+00
 S   1 1.00       0.000000000000
      0.3272304100D+00  0.1000000000D+01
 S   1 1.00       0.000000000000
      0.1030724100D+00  0.1000000000D+01
 P   1 1.00       0.000000000000
      0.1407000000D+01  0.1000000000D+01
 P   1 1.00       0.000000000000
      0.3880000000D+00  0.1000000000D+01
 D   1 1.00       0.000000000000
      0.1057000000D+01  0.1000000000D+01
 ****
      4 0
 S   3 1.00       0.000000000000
      0.3406134100D+02  0.2543930721D-01
      0.5123574600D+01  0.1900859489D+00
      0.1164662600D+01  0.8524411301D+00
 S   1 1.00       0.000000000000
      0.3272304100D+00  0.1000000000D+01
 S   1 1.00       0.000000000000
      0.1030724100D+00  0.1000000000D+01
 P   1 1.00       0.000000000000
      0.1407000000D+01  0.1000000000D+01
 P   1 1.00       0.000000000000
      0.3880000000D+00  0.1000000000D+01
 D   1 1.00       0.000000000000
      0.1057000000D+01  0.1000000000D+01
 ****
      5 0
 S   3 1.00       0.000000000000
      0.3406134100D+02  0.2543930721D-01
      0.5123574600D+01  0.1900859489D+00
      0.1164662600D+01  0.8524411301D+00
 S   1 1.00       0.000000000000
      0.3272304100D+00  0.1000000000D+01
 S   1 1.00       0.000000000000
      0.1030724100D+00  0.1000000000D+01
 P   1 1.00       0.000000000000
      0.1407000000D+01  0.1000000000D+01
 P   1 1.00       0.000000000000
      0.3880000000D+00  0.1000000000D+01
 D   1 1.00       0.000000000000
      0.1057000000D+01  0.1000000000D+01
 ****
      6 0
 S   3 1.00       0.000000000000
      0.3406134100D+02  0.2543930721D-01
      0.5123574600D+01  0.1900859489D+00
      0.1164662600D+01  0.8524411301D+00
 S   1 1.00       0.000000000000
      0.3272304100D+00  0.1000000000D+01
 S   1 1.00       0.000000000000
      0.1030724100D+00  0.1000000000D+01
 P   1 1.00       0.000000000000
      0.1407000000D+01  0.1000000000D+01
 P   1 1.00       0.000000000000
      0.3880000000D+00  0.1000000000D+01
 D   1 1.00       0.000000000000
      0.1057000000D+01  0.1000000000D+01
 ****
      7 0
 S   3 1.00       0.000000000000
      0.3406134100D+02  0.2543930721D-01
      0.5123574600D+01  0.1900859489D+00
      0.1164662600D+01  0.8524411301D+00
 S   1 1.00       0.000000000000
      0.3272304100D+00  0.1000000000D+01
 S   1 1.00       0.000000000000
      0.1030724100D+00  0.1000000000D+01
 P   1 1.00       0.000000000000
      0.1407000000D+01  0.1000000000D+01
 P   1 1.00       0.000000000000
      0.3880000000D+00  0.1000000000D+01
 D   1 1.00       0.000000000000
      0.1057000000D+01  0.1000000000D+01
 ****
      8 0
 S   3 1.00       0.000000000000
      0.3406134100D+02  0.2543930721D-01
      0.5123574600D+01  0.1900859489D+00
      0.1164662600D+01  0.8524411301D+00
 S   1 1.00       0.000000000000
      0.3272304100D+00  0.1000000000D+01
 S   1 1.00       0.000000000000
      0.1030724100D+00  0.1000000000D+01
 P   1 1.00       0.000000000000
      0.1407000000D+01  0.1000000000D+01
 P   1 1.00       0.000000000000
      0.3880000000D+00  0.1000000000D+01
 D   1 1.00       0.000000000000
      0.1057000000D+01  0.1000000000D+01
 ****
      9 0
 S   3 1.00       0.000000000000
      0.3406134100D+02  0.2543930721D-01
      0.5123574600D+01  0.1900859489D+00
      0.1164662600D+01  0.8524411301D+00
 S   1 1.00       0.000000000000
      0.3272304100D+00  0.1000000000D+01
 S   1 1.00       0.000000000000
      0.1030724100D+00  0.1000000000D+01
 P   1 1.00       0.000000000000
      0.1407000000D+01  0.1000000000D+01
 P   1 1.00       0.000000000000
      0.3880000000D+00  0.1000000000D+01
 D   1 1.00       0.000000000000
      0.1057000000D+01  0.1000000000D+01
 ****
     10 0
 S   3 1.00       0.000000000000
      0.3406134100D+02  0.2543930721D-01
      0.5123574600D+01  0.1900859489D+00
      0.1164662600D+01  0.8524411301D+00
 S   1 1.00       0.000000000000
      0.3272304100D+00  0.1000000000D+01
 S   1 1.00       0.000000000000
      0.1030724100D+00  0.1000000000D+01
 P   1 1.00       0.000000000000
      0.1407000000D+01  0.1000000000D+01
 P   1 1.00       0.000000000000
      0.3880000000D+00  0.1000000000D+01
 D   1 1.00       0.000000000000
      0.1057000000D+01  0.1000000000D+01
 ****
     11 0
 S   3 1.00       0.000000000000
      0.3406134100D+02  0.2543930721D-01
      0.5123574600D+01  0.1900859489D+00
      0.1164662600D+01  0.8524411301D+00
 S   1 1.00       0.000000000000
      0.3272304100D+00  0.1000000000D+01
 S   1 1.00       0.000000000000
      0.1030724100D+00  0.1000000000D+01
 P   1 1.00       0.000000000000
      0.1407000000D+01  0.1000000000D+01
 P   1 1.00       0.000000000000
      0.3880000000D+00  0.1000000000D+01
 D   1 1.00       0.000000000000
      0.1057000000D+01  0.1000000000D+01
 ****
     12 0
 S   3 1.00       0.000000000000
      0.3406134100D+02  0.2543930721D-01
      0.5123574600D+01  0.1900859489D+00
      0.1164662600D+01  0.8524411301D+00
 S   1 1.00       0.000000000000
      0.3272304100D+00  0.1000000000D+01
 S   1 1.00       0.000000000000
      0.1030724100D+00  0.1000000000D+01
 P   1 1.00       0.000000000000
      0.1407000000D+01  0.1000000000D+01
 P   1 1.00       0.000000000000
      0.3880000000D+00  0.1000000000D+01
 D   1 1.00       0.000000000000
      0.1057000000D+01  0.1000000000D+01
 ****
     13 0
 S   3 1.00       0.000000000000
      0.3406134100D+02  0.2543930721D-01
      0.5123574600D+01  0.1900859489D+00
      0.1164662600D+01  0.8524411301D+00
 S   1 1.00       0.000000000000
      0.3272304100D+00  0.1000000000D+01
 S   1 1.00       0.000000000000
      0.1030724100D+00  0.1000000000D+01
 P   1 1.00       0.000000000000
      0.1407000000D+01  0.1000000000D+01
 P   1 1.00       0.000000000000
      0.3880000000D+00  0.1000000000D+01
 D   1 1.00       0.000000000000
      0.1057000000D+01  0.1000000000D+01
 ****
     14 0
 S   3 1.00       0.000000000000
      0.3406134100D+02  0.2543930721D-01
      0.5123574600D+01  0.1900859489D+00
      0.1164662600D+01  0.8524411301D+00
 S   1 1.00       0.000000000000
      0.3272304100D+00  0.1000000000D+01
 S   1 1.00       0.000000000000
      0.1030724100D+00  0.1000000000D+01
 P   1 1.00       0.000000000000
      0.1407000000D+01  0.1000000000D+01
 P   1 1.00       0.000000000000
      0.3880000000D+00  0.1000000000D+01
 D   1 1.00       0.000000000000
      0.1057000000D+01  0.1000000000D+01
 ****
     15 0
 S   3 1.00       0.000000000000
      0.3406134100D+02  0.2543930721D-01
      0.5123574600D+01  0.1900859489D+00
      0.1164662600D+01  0.8524411301D+00
 S   1 1.00       0.000000000000
      0.3272304100D+00  0.1000000000D+01
 S   1 1.00       0.000000000000
      0.1030724100D+00  0.1000000000D+01
 P   1 1.00       0.000000000000
      0.1407000000D+01  0.1000000000D+01
 P   1 1.00       0.000000000000
      0.3880000000D+00  0.1000000000D+01
 D   1 1.00       0.000000000000
      0.1057000000D+01  0.1000000000D+01
 ****
     16 0
 S   3 1.00       0.000000000000
      0.3406134100D+02  0.2543930721D-01
      0.5123574600D+01  0.1900859489D+00
      0.1164662600D+01  0.8524411301D+00
 S   1 1.00       0.000000000000
      0.3272304100D+00  0.1000000000D+01
 S   1 1.00       0.000000000000
      0.1030724100D+00  0.1000000000D+01
 P   1 1.00       0.000000000000
      0.1407000000D+01  0.1000000000D+01
 P   1 1.00       0.000000000000
      0.3880000000D+00  0.1000000000D+01
 D   1 1.00       0.000000000000
      0.1057000000D+01  0.1000000000D+01
 ****
     17 0
 S   7 1.00       0.000000000000
      0.5242699923D+05  0.5350794754D-03
      0.7863266055D+04  0.4136499449D-02
      0.1789522733D+04  0.2125650053D-01
      0.5062730017D+03  0.8303042596D-01
      0.1646069855D+03  0.2407611725D+00
      0.5839191872D+02  0.4491055900D+00
      0.2164366320D+02  0.3426250636D+00
 S   3 1.00       0.000000000000
      0.9901383762D+02  0.8820426703D-01
      0.3055043982D+02  0.3853170872D+00
      0.5453708766D+01 -0.1186531918D+01
 S   2 1.00       0.000000000000
      0.2650336256D+01  0.6822575618D+00
      0.1272668887D+01  0.3392684095D+00
 S   1 1.00       0.000000000000
      0.3164500520D+00  0.1000000000D+01
 S   1 1.00       0.000000000000
      0.1141746694D+00  0.1000000000D+01
 P   5 1.00       0.000000000000
      0.4722721925D+03  0.3644000722D-02
      0.1115888276D+03  0.2870101607D-01
      0.3544593642D+02  0.1297985651D+00
      0.1299077687D+02  0.3649504286D+00
      0.5048622166D+01  0.6075015660D+00
 P   1 1.00       0.000000000000
      0.1993404957D+01  0.1000000000D+01
 P   1 1.00       0.000000000000
      0.6652728443D+00  0.1000000000D+01
 P   1 1.00       0.000000000000
      0.2551683213D+00  0.1000000000D+01
 P   1 1.00       0.000000000000
      0.9035776225D-01  0.1000000000D+01
 D   1 1.00       0.000000000000
      0.3120000000D+01  0.1000000000D+01
 D   1 1.00       0.000000000000
      0.6480000000D+00  0.1000000000D+01
 D   1 1.00       0.000000000000
      0.2180000000D+00  0.1000000000D+01
 F   1 1.00       0.000000000000
      0.4520000000D+00  0.1000000000D+01
 ****
     18 0
 S   7 1.00       0.000000000000
      0.5242699923D+05  0.5350794754D-03
      0.7863266055D+04  0.4136499449D-02
      0.1789522733D+04  0.2125650053D-01
      0.5062730017D+03  0.8303042596D-01
      0.1646069855D+03  0.2407611725D+00
      0.5839191872D+02  0.4491055900D+00
      0.2164366320D+02  0.3426250636D+00
 S   3 1.00       0.000000000000
      0.9901383762D+02  0.8820426703D-01
      0.3055043982D+02  0.3853170872D+00
      0.5453708766D+01 -0.1186531918D+01
 S   2 1.00       0.000000000000
      0.2650336256D+01  0.6822575618D+00
      0.1272668887D+01  0.3392684095D+00
 S   1 1.00       0.000000000000
      0.3164500520D+00  0.1000000000D+01
 S   1 1.00       0.000000000000
      0.1141746694D+00  0.1000000000D+01
 P   5 1.00       0.000000000000
      0.4722721925D+03  0.3644000722D-02
      0.1115888276D+03  0.2870101607D-01
      0.3544593642D+02  0.1297985651D+00
      0.1299077687D+02  0.3649504286D+00
      0.5048622166D+01  0.6075015660D+00
 P   1 1.00       0.000000000000
      0.1993404957D+01  0.1000000000D+01
 P   1 1.00       0.000000000000
      0.6652728443D+00  0.1000000000D+01
 P   1 1.00       0.000000000000
      0.2551683213D+00  0.1000000000D+01
 P   1 1.00       0.000000000000
      0.9035776225D-01  0.1000000000D+01
 D   1 1.00       0.000000000000
      0.3120000000D+01  0.1000000000D+01
 D   1 1.00       0.000000000000
      0.6480000000D+00  0.1000000000D+01
 D   1 1.00       0.000000000000
      0.2180000000D+00  0.1000000000D+01
 F   1 1.00       0.000000000000
      0.4520000000D+00  0.1000000000D+01
 ****
     19 0
 S   7 1.00       0.000000000000
      0.5242699923D+05  0.5350794754D-03
      0.7863266055D+04  0.4136499449D-02
      0.1789522733D+04  0.2125650053D-01
      0.5062730017D+03  0.8303042596D-01
      0.1646069855D+03  0.2407611725D+00
      0.5839191872D+02  0.4491055900D+00
      0.2164366320D+02  0.3426250636D+00
 S   3 1.00       0.000000000000
      0.9901383762D+02  0.8820426703D-01
      0.3055043982D+02  0.3853170872D+00
      0.5453708766D+01 -0.1186531918D+01
 S   2 1.00       0.000000000000
      0.2650336256D+01  0.6822575618D+00
      0.1272668887D+01  0.3392684095D+00
 S   1 1.00       0.000000000000
      0.3164500520D+00  0.1000000000D+01
 S   1 1.00       0.000000000000
      0.1141746694D+00  0.1000000000D+01
 P   5 1.00       0.000000000000
      0.4722721925D+03  0.3644000722D-02
      0.1115888276D+03  0.2870101607D-01
      0.3544593642D+02  0.1297985651D+00
      0.1299077687D+02  0.3649504286D+00
      0.5048622166D+01  0.6075015660D+00
 P   1 1.00       0.000000000000
      0.1993404957D+01  0.1000000000D+01
 P   1 1.00       0.000000000000
      0.6652728443D+00  0.1000000000D+01
 P   1 1.00       0.000000000000
      0.2551683213D+00  0.1000000000D+01
 P   1 1.00       0.000000000000
      0.9035776225D-01  0.1000000000D+01
 D   1 1.00       0.000000000000
      0.3120000000D+01  0.1000000000D+01
 D   1 1.00       0.000000000000
      0.6480000000D+00  0.1000000000D+01
 D   1 1.00       0.000000000000
      0.2180000000D+00  0.1000000000D+01
 F   1 1.00       0.000000000000
      0.4520000000D+00  0.1000000000D+01
 ****
     20 0
 S   7 1.00       0.000000000000
      0.5242699923D+05  0.5350794754D-03
      0.7863266055D+04  0.4136499449D-02
      0.1789522733D+04  0.2125650053D-01
      0.5062730017D+03  0.8303042596D-01
      0.1646069855D+03  0.2407611725D+00
      0.5839191872D+02  0.4491055900D+00
      0.2164366320D+02  0.3426250636D+00
 S   3 1.00       0.000000000000
      0.9901383762D+02  0.8820426703D-01
      0.3055043982D+02  0.3853170872D+00
      0.5453708766D+01 -0.1186531918D+01
 S   2 1.00       0.000000000000
      0.2650336256D+01  0.6822575618D+00
      0.1272668887D+01  0.3392684095D+00
 S   1 1.00       0.000000000000
      0.3164500520D+00  0.1000000000D+01
 S   1 1.00       0.000000000000
      0.1141746694D+00  0.1000000000D+01
 P   5 1.00       0.000000000000
      0.4722721925D+03  0.3644000722D-02
      0.1115888276D+03  0.2870101607D-01
      0.3544593642D+02  0.1297985651D+00
      0.1299077687D+02  0.3649504286D+00
      0.5048622166D+01  0.6075015660D+00
 P   1 1.00       0.000000000000
      0.1993404957D+01  0.1000000000D+01
 P   1 1.00       0.000000000000
      0.6652728443D+00  0.1000000000D+01
 P   1 1.00       0.000000000000
      0.2551683213D+00  0.1000000000D+01
 P   1 1.00       0.000000000000
      0.9035776225D-01  0.1000000000D+01
 D   1 1.00       0.000000000000
      0.3120000000D+01  0.1000000000D+01
 D   1 1.00       0.000000000000
      0.6480000000D+00  0.1000000000D+01
 D   1 1.00       0.000000000000
      0.2180000000D+00  0.1000000000D+01
 F   1 1.00       0.000000000000
      0.4520000000D+00  0.1000000000D+01
 ****

   442 basis functions,   661 primitive gaussians,   497 cartesian basis functions
    50 alpha electrons       50 beta electrons
       nuclear repulsion energy       847.2738416824 Hartrees.
 IExCor= 2523 DFT=T Ex+Corr=TPSSh ExCW=0 ScaHFX=  0.100000
 ScaDFX=  0.900000  0.900000  1.000000  1.000000 ScalE2=  1.000000  1.000000
 IRadAn=      5 IRanWt=     -1 IRanGd=            0 ICorTp=0 IEmpDi=  4
 NAtoms=   20 NActive=   20 NUniq=   20 SFac= 1.00D+00 NAtFMM=   60 NAOKFM=F Big=F
 Integral buffers will be    131072 words long.
 Raffenetti 2 integral format.
 Two-electron integral symmetry is turned off.
 Leave Link  301 at Tue Jan 30 05:21:36 2024, MaxMem=  8589934592 cpu:               3.1 elap:               0.1
 (Enter /work/01114/jfonner/frontera/gaussian/16rC.01/g16/l302.exe)
 NPDir=0 NMtPBC=     1 NCelOv=     1 NCel=       1 NClECP=     1 NCelD=      1
         NCelK=      1 NCelE2=     1 NClLst=     1 CellRange=     0.0.
 One-electron integrals computed using PRISM.
 NBasis=   442 RedAO= T EigKep=  4.61D-04  NBF=   442
 NBsUse=   442 1.00D-06 EigRej= -1.00D+00 NBFU=   442
 Precomputing XC quadrature grid using
 IXCGrd= 4 IRadAn=           5 IRanWt=          -1 IRanGd=           0 AccXCQ= 0.00D+00.
 Generated NRdTot=       0 NPtTot=           0 NUsed=           0 NTot=          32
 NSgBfM=   496   496   496   496   496 MxSgAt=    20 MxSgA2=    20.
 Leave Link  302 at Tue Jan 30 05:21:36 2024, MaxMem=  8589934592 cpu:              19.6 elap:               0.4
 (Enter /work/01114/jfonner/frontera/gaussian/16rC.01/g16/l303.exe)
 DipDrv:  MaxL=1.
 Leave Link  303 at Tue Jan 30 05:21:37 2024, MaxMem=  8589934592 cpu:               4.7 elap:               0.1
 (Enter /work/01114/jfonner/frontera/gaussian/16rC.01/g16/l401.exe)
 ExpMin= 4.20D-02 ExpMax= 3.01D+05 ExpMxC= 2.91D+03 IAcc=3 IRadAn=         5 AccDes= 0.00D+00
 Harris functional with IExCor= 1009 and IRadAn=       5 diagonalized for initial guess.
 HarFok:  IExCor= 1009 AccDes= 0.00D+00 IRadAn=         5 IDoV= 1 UseB2=F ITyADJ=14
 ICtDFT=  3500011 ScaDFX=  1.000000  1.000000  1.000000  1.000000
 FoFCou: FMM=F IPFlag=           0 FMFlag=      100000 FMFlg1=           0
         NFxFlg=           0 DoJE=T BraDBF=F KetDBF=T FulRan=T
         wScrn=  0.000000 ICntrl=       500 IOpCl=  0 I1Cent=   200000004 NGrid=           0
         NMat0=    1 NMatS0=      1 NMatT0=    0 NMatD0=    1 NMtDS0=    0 NMtDT0=    0
 Symmetry not used in FoFCou.
 Harris En= -2637.11502216243    
 JPrj=0 DoOrth=F DoCkMO=F.
 Leave Link  401 at Tue Jan 30 05:21:37 2024, MaxMem=  8589934592 cpu:              35.5 elap:               0.7
 (Enter /work/01114/jfonner/frontera/gaussian/16rC.01/g16/l502.exe)
 Two-electron integral symmetry not used.
 Closed shell SCF:
 Using DIIS extrapolation, IDIIS=  1040.
 NGot=  8589934592 LenX=  8589408891 LenY=  8589161385
 Requested convergence on RMS density matrix=1.00D-08 within 500 cycles.
 Requested convergence on MAX density matrix=1.00D-06.
 Requested convergence on             energy=1.00D-06.
 No special actions if energy rises.
 Fock matrices will be formed incrementally for  20 cycles.

 Cycle   1  Pass 1  IDiag  1:
 FoFJK:  IHMeth= 1 ICntrl=       0 DoSepK=F KAlg= 0 I1Cent=           0 FoldK=F
 IRaf= 920000000 NMat=       1 IRICut=       1 DoRegI=T DoRafI=F ISym2E= 0 IDoP0=0 IntGTp=1.
 FoFCou: FMM=F IPFlag=           0 FMFlag=      100000 FMFlg1=           0
         NFxFlg=           0 DoJE=F BraDBF=F KetDBF=F FulRan=T
         wScrn=  0.000000 ICntrl=         0 IOpCl=  0 I1Cent=           0 NGrid=           0
         NMat0=    1 NMatS0=      1 NMatT0=    0 NMatD0=    1 NMtDS0=    0 NMtDT0=    0
 Symmetry not used in FoFCou.
 E= -2637.82097667342    
 DIIS: error= 5.20D-02 at cycle   1 NSaved=   1.
 NSaved= 1 IEnMin= 1 EnMin= -2637.82097667342     IErMin= 1 ErrMin= 5.20D-02
 ErrMax= 5.20D-02  0.00D+00 EMaxC= 1.00D-01 BMatC= 4.42D-01 BMatP= 4.42D-01
 IDIUse=3 WtCom= 4.80D-01 WtEn= 5.20D-01
 Coeff-Com:  0.100D+01
 Coeff-En:   0.100D+01
 Coeff:      0.100D+01
 Gap=     0.091 Goal=   None    Shift=    0.000
 GapD=    0.091 DampG=0.500 DampE=0.250 DampFc=0.1250 IDamp=-1.
 Damping current iteration by 1.25D-01
 RMSDP=8.02D-03 MaxDP=3.00D-01              OVMax= 8.39D-01

 Cycle   2  Pass 1  IDiag  1:
 RMSU=  1.00D-03    CP:  9.97D-01
 E= -2637.87294016319     Delta-E=       -0.051963489769 Rises=F Damp=T
 DIIS: error= 2.15D-02 at cycle   2 NSaved=   2.
 NSaved= 2 IEnMin= 2 EnMin= -2637.87294016319     IErMin= 2 ErrMin= 2.15D-02
 ErrMax= 2.15D-02  0.00D+00 EMaxC= 1.00D-01 BMatC= 1.44D-01 BMatP= 4.42D-01
 IDIUse=3 WtCom= 7.85D-01 WtEn= 2.15D-01
 Coeff-Com:  0.124D+00 0.876D+00
 Coeff-En:   0.374D+00 0.626D+00
 Coeff:      0.177D+00 0.823D+00
 Gap=     0.081 Goal=   None    Shift=    0.000
 RMSDP=1.29D-03 MaxDP=1.27D-01 DE=-5.20D-02 OVMax= 7.37D-01

 Cycle   3  Pass 1  IDiag  1:
 RMSU=  1.22D-03    CP:  9.97D-01  5.94D-01
 E= -2637.88110145919     Delta-E=       -0.008161296000 Rises=F Damp=F
 DIIS: error= 6.35D-02 at cycle   3 NSaved=   3.
 NSaved= 3 IEnMin= 3 EnMin= -2637.88110145919     IErMin= 2 ErrMin= 2.15D-02
 ErrMax= 6.35D-02  0.00D+00 EMaxC= 1.00D-01 BMatC= 3.96D-01 BMatP= 1.44D-01
 IDIUse=2 WtCom= 0.00D+00 WtEn= 1.00D+00
 EnCoef did   100 forward-backward iterations
 Coeff-En:   0.458D+00 0.545D-02 0.537D+00
 Coeff:      0.458D+00 0.545D-02 0.537D+00
 Gap=     0.144 Goal=   None    Shift=    0.000
 RMSDP=8.10D-04 MaxDP=6.44D-02 DE=-8.16D-03 OVMax= 1.51D-01

 Cycle   4  Pass 1  IDiag  1:
 RMSU=  4.40D-04    CP:  1.00D+00  1.81D-01  5.60D-01
 E= -2637.97153920361     Delta-E=       -0.090437744426 Rises=F Damp=F
 DIIS: error= 4.28D-02 at cycle   4 NSaved=   4.
 NSaved= 4 IEnMin= 4 EnMin= -2637.97153920361     IErMin= 2 ErrMin= 2.15D-02
 ErrMax= 4.28D-02  0.00D+00 EMaxC= 1.00D-01 BMatC= 2.96D-01 BMatP= 1.44D-01
 IDIUse=2 WtCom= 0.00D+00 WtEn= 1.00D+00
 Coeff-En:   0.000D+00 0.000D+00 0.418D+00 0.582D+00
 Coeff:      0.000D+00 0.000D+00 0.418D+00 0.582D+00
 Gap=     0.152 Goal=   None    Shift=    0.000
 RMSDP=4.03D-04 MaxDP=4.23D-02 DE=-9.04D-02 OVMax= 7.66D-02

 Cycle   5  Pass 1  IDiag  1:
 RMSU=  2.17D-04    CP:  9.96D-01  2.95D-01  6.66D-01  3.41D-01
 E= -2638.07860685689     Delta-E=       -0.107067653279 Rises=F Damp=F
 DIIS: error= 1.13D-02 at cycle   5 NSaved=   5.
 NSaved= 5 IEnMin= 5 EnMin= -2638.07860685689     IErMin= 5 ErrMin= 1.13D-02
 ErrMax= 1.13D-02  0.00D+00 EMaxC= 1.00D-01 BMatC= 2.87D-02 BMatP= 1.44D-01
 IDIUse=3 WtCom= 8.87D-01 WtEn= 1.13D-01
 Coeff-Com: -0.126D+00 0.137D+00 0.292D-01 0.355D+00 0.605D+00
 Coeff-En:   0.000D+00 0.000D+00 0.000D+00 0.179D+00 0.821D+00
 Coeff:     -0.112D+00 0.122D+00 0.259D-01 0.335D+00 0.629D+00
 Gap=     0.150 Goal=   None    Shift=    0.000
 RMSDP=1.69D-04 MaxDP=1.38D-02 DE=-1.07D-01 OVMax= 3.34D-02

 Cycle   6  Pass 1  IDiag  1:
 RMSU=  7.28D-05    CP:  9.98D-01  2.67D-01  6.59D-01  5.78D-01  5.13D-01
